SLAB
PRIMVEC
    4.624893    0.000000    0.000000
   -2.312446    4.005275    0.000000
    0.000000    0.000000   40.000000
PRIMCOORD
         2 1
         C    1.156223    2.002637   19.653152
         C    3.468669    0.667546   19.653152
